    1C
    1UUSER                                                              
    1UDATE              01.april.2017                                   
    1UTIME              17:14:36                                        
    1UHOST                                                              
    1UPGM               CalculiX                                        
    1UVERSION           Version 2.12                             
    1UCOMPILETIME       Fr 24. Mär 20:05:01 CET 2017                    
    1UDIR                                                               
    1UDBN                                                               
    1UMAT    1EL                                                        
    2C                           490                                     1
 -1         1 1.00000E+00 6.12323E-17 1.00000E+00
 -1         2 5.00000E-01 6.12323E-17 1.00000E+00
 -1         3 5.00000E-01-4.36215E-02 9.99046E-01
 -1         4 1.00000E+00-4.36215E-02 9.99046E-01
 -1         5 1.00000E+00 9.18485E-17 1.50000E+00
 -1         6 6.25000E-01 9.18485E-17 1.50000E+00
 -1         7 6.25000E-01-6.54298E-02 1.49857E+00
 -1         8 1.00000E+00-6.54298E-02 1.49857E+00
 -1         9 7.50000E-01 6.12323E-17 1.00000E+00
 -1        10 5.00000E-01-2.18160E-02 9.99761E-01
 -1        11 7.50000E-01-4.36215E-02 9.99046E-01
 -1        12 1.00000E+00-2.18160E-02 9.99761E-01
 -1        13 1.00000E+00 7.65404E-17 1.25000E+00
 -1        14 5.62500E-01 7.65404E-17 1.25000E+00
 -1        15 5.62500E-01-5.45256E-02 1.24881E+00
 -1        16 1.00000E+00-5.45256E-02 1.24881E+00
 -1        17 8.12500E-01 9.18485E-17 1.50000E+00
 -1        18 6.25000E-01-3.27227E-02 1.49964E+00
 -1        19 8.12500E-01-6.54298E-02 1.49857E+00
 -1        20 1.00000E+00-3.27227E-02 1.49964E+00
 -1        21 5.00000E-01-8.71600E-02 9.96190E-01
 -1        22 1.00000E+00-8.71600E-02 9.96190E-01
 -1        23 6.25000E-01-1.30735E-01 1.49429E+00
 -1        24 1.00000E+00-1.30735E-01 1.49429E+00
 -1        25 5.00000E-01-6.54063E-02 9.97855E-01
 -1        26 7.50000E-01-8.71600E-02 9.96190E-01
 -1        27 1.00000E+00-6.54063E-02 9.97855E-01
 -1        28 5.62500E-01-1.08948E-01 1.24524E+00
 -1        29 1.00000E+00-1.08948E-01 1.24524E+00
 -1        30 6.25000E-01-9.81057E-02 1.49679E+00
 -1        31 8.12500E-01-1.30735E-01 1.49429E+00
 -1        32 1.00000E+00-9.81057E-02 1.49679E+00
 -1        33 1.00000E+00 1.22465E-16 2.00000E+00
 -1        34 7.50000E-01 1.22465E-16 2.00000E+00
 -1        35 7.50000E-01-8.72380E-02 1.99810E+00
 -1        36 1.00000E+00-8.72380E-02 1.99810E+00
 -1        37 1.00000E+00 1.07157E-16 1.75000E+00
 -1        38 6.87500E-01 1.07157E-16 1.75000E+00
 -1        39 6.87500E-01-7.63339E-02 1.74833E+00
 -1        40 1.00000E+00-7.63339E-02 1.74833E+00
 -1        41 8.75000E-01 1.22465E-16 2.00000E+00
 -1        42 7.50000E-01-4.36294E-02 1.99952E+00
 -1        43 8.75000E-01-8.72380E-02 1.99810E+00
 -1        44 1.00000E+00-4.36294E-02 1.99952E+00
 -1        45 7.50000E-01-1.74310E-01 1.99239E+00
 -1        46 1.00000E+00-1.74310E-01 1.99239E+00
 -1        47 6.87500E-01-1.52523E-01 1.74334E+00
 -1        48 1.00000E+00-1.52523E-01 1.74334E+00
 -1        49 7.50000E-01-1.30805E-01 1.99572E+00
 -1        50 8.75000E-01-1.74310E-01 1.99239E+00
 -1        51 1.00000E+00-1.30805E-01 1.99572E+00
 -1        52 0.00000E+00 6.12323E-17 1.00000E+00
 -1        53 0.00000E+00-4.36215E-02 9.99046E-01
 -1        54 2.50000E-01 9.18485E-17 1.50000E+00
 -1        55 2.50000E-01-6.54298E-02 1.49857E+00
 -1        56 2.50000E-01 6.12323E-17 1.00000E+00
 -1        57 0.00000E+00-2.18160E-02 9.99761E-01
 -1        58 2.50000E-01-4.36215E-02 9.99046E-01
 -1        59 1.25000E-01 7.65404E-17 1.25000E+00
 -1        60 1.25000E-01-5.45256E-02 1.24881E+00
 -1        61 4.37500E-01 9.18485E-17 1.50000E+00
 -1        62 2.50000E-01-3.27227E-02 1.49964E+00
 -1        63 4.37500E-01-6.54298E-02 1.49857E+00
 -1        64 0.00000E+00-8.71600E-02 9.96190E-01
 -1        65 2.50000E-01-1.30735E-01 1.49429E+00
 -1        66 0.00000E+00-6.54063E-02 9.97855E-01
 -1        67 2.50000E-01-8.71600E-02 9.96190E-01
 -1        68 1.25000E-01-1.08948E-01 1.24524E+00
 -1        69 2.50000E-01-9.81057E-02 1.49679E+00
 -1        70 4.37500E-01-1.30735E-01 1.49429E+00
 -1        71 5.00000E-01 1.22465E-16 2.00000E+00
 -1        72 5.00000E-01-8.72380E-02 1.99810E+00
 -1        73 3.75000E-01 1.07157E-16 1.75000E+00
 -1        74 3.75000E-01-7.63339E-02 1.74833E+00
 -1        75 6.25000E-01 1.22465E-16 2.00000E+00
 -1        76 5.00000E-01-4.36294E-02 1.99952E+00
 -1        77 6.25000E-01-8.72380E-02 1.99810E+00
 -1        78 5.00000E-01-1.74310E-01 1.99239E+00
 -1        79 3.75000E-01-1.52523E-01 1.74334E+00
 -1        80 5.00000E-01-1.30805E-01 1.99572E+00
 -1        81 6.25000E-01-1.74310E-01 1.99239E+00
 -1        82 5.00000E-01 2.14313E-16 3.50000E+00
 -1        83 2.50000E-01 1.99005E-16 3.25000E+00
 -1        84 2.50000E-01-1.42660E-01 3.26740E+00
 -1        85 5.00000E-01-1.54205E-01 3.53179E+00
 -1        86 5.00000E-01 1.68389E-16 2.75000E+00
 -1        87 2.50000E-01 1.45427E-16 2.37500E+00
 -1        88 2.50000E-01-1.04045E-01 2.38298E+00
 -1        89 5.00000E-01-1.20721E-01 2.76495E+00
 -1        90 3.75000E-01 2.06659E-16 3.37500E+00
 -1        91 2.50000E-01-7.11232E-02 3.25948E+00
 -1        92 3.75000E-01-1.48464E-01 3.40033E+00
 -1        93 5.00000E-01-7.67371E-02 3.51674E+00
 -1        94 2.50000E-01-2.86836E-01 3.27849E+00
 -1        95 5.00000E-01-3.11180E-01 3.55673E+00
 -1        96 2.50000E-01-2.08785E-01 2.38639E+00
 -1        97 5.00000E-01-2.42745E-01 2.77456E+00
 -1        98 2.50000E-01-2.14576E-01 3.27374E+00
 -1        99 3.75000E-01-2.99135E-01 3.41907E+00
 -1       100 5.00000E-01-2.32365E-01 3.54513E+00
 -1       101 5.00000E-01 3.06162E-16 5.00000E+00
 -1       102 2.50000E-01 3.06162E-16 5.00000E+00
 -1       103 2.50000E-01-2.18098E-01 4.99524E+00
 -1       104 5.00000E-01-2.18098E-01 4.99524E+00
 -1       105 5.00000E-01 2.60237E-16 4.25000E+00
 -1       106 2.50000E-01 2.52583E-16 4.12500E+00
 -1       107 2.50000E-01-1.80379E-01 4.13132E+00
 -1       108 5.00000E-01-1.86151E-01 4.26352E+00
 -1       109 3.75000E-01 3.06162E-16 5.00000E+00
 -1       110 2.50000E-01-1.09075E-01 4.99881E+00
 -1       111 3.75000E-01-2.18098E-01 4.99524E+00
 -1       112 5.00000E-01-1.09075E-01 4.99881E+00
 -1       113 2.50000E-01-4.35780E-01 4.98097E+00
 -1       114 5.00000E-01-4.35780E-01 4.98097E+00
 -1       115 2.50000E-01-3.61308E-01 4.12973E+00
 -1       116 5.00000E-01-3.73480E-01 4.26885E+00
 -1       117 2.50000E-01-3.27017E-01 4.98929E+00
 -1       118 3.75000E-01-4.35780E-01 4.98097E+00
 -1       119 5.00000E-01-3.27017E-01 4.98929E+00
 -1       120 0.00000E+00 1.83697E-16 3.00000E+00
 -1       121 0.00000E+00-1.30860E-01 2.99714E+00
 -1       122 0.00000E+00 1.22465E-16 2.00000E+00
 -1       123-8.88178E-16-8.72405E-02 1.99809E+00
 -1       124 1.25000E-01 1.91351E-16 3.12500E+00
 -1       125 0.00000E+00-6.54453E-02 2.99929E+00
 -1       126 1.25000E-01-1.36792E-01 3.13300E+00
 -1       127 0.00000E+00-2.61470E-01 2.98858E+00
 -1       128 0.00000E+00-1.74315E-01 1.99239E+00
 -1       129-8.88178E-16-1.96211E-01 2.99357E+00
 -1       130 1.25000E-01-2.74280E-01 3.13500E+00
 -1       131 0.00000E+00 3.06162E-16 5.00000E+00
 -1       132 0.00000E+00-2.18098E-01 4.99524E+00
 -1       133 0.00000E+00 2.44929E-16 4.00000E+00
 -1       134 0.00000E+00-1.74479E-01 3.99619E+00
 -1       135 1.25000E-01 3.06162E-16 5.00000E+00
 -1       136 0.00000E+00-1.09075E-01 4.99881E+00
 -1       137 1.25000E-01-2.18098E-01 4.99524E+00
 -1       138 0.00000E+00-4.35780E-01 4.98097E+00
 -1       139 0.00000E+00-3.48625E-01 3.98478E+00
 -1       140 0.00000E+00-3.27017E-01 4.98929E+00
 -1       141 1.25000E-01-4.35780E-01 4.98097E+00
 -1       142 5.00000E-01-1.30529E-01 9.91444E-01
 -1       143 1.00000E+00-1.30529E-01 9.91444E-01
 -1       144 6.25000E-01-1.95791E-01 1.48717E+00
 -1       145 1.00000E+00-1.95791E-01 1.48717E+00
 -1       146 5.00000E-01-1.08871E-01 9.94053E-01
 -1       147 7.50000E-01-1.30529E-01 9.91444E-01
 -1       148 1.00000E+00-1.08871E-01 9.94053E-01
 -1       149 5.62500E-01-1.63160E-01 1.23931E+00
 -1       150 1.00000E+00-1.63160E-01 1.23931E+00
 -1       151 6.25000E-01-1.63302E-01 1.49108E+00
 -1       152 8.12500E-01-1.95791E-01 1.48717E+00
 -1       153 1.00000E+00-1.63302E-01 1.49108E+00
 -1       154 5.00000E-01-1.73650E-01 9.84810E-01
 -1       155 1.00000E+00-1.73650E-01 9.84810E-01
 -1       156 6.25000E-01-2.60475E-01 1.47722E+00
 -1       157 1.00000E+00-2.60475E-01 1.47722E+00
 -1       158 5.00000E-01-1.52126E-01 9.88362E-01
 -1       159 7.50000E-01-1.73650E-01 9.84810E-01
 -1       160 1.00000E+00-1.52126E-01 9.88362E-01
 -1       161 5.62500E-01-2.17063E-01 1.23101E+00
 -1       162 1.00000E+00-2.17063E-01 1.23101E+00
 -1       163 6.25000E-01-2.28187E-01 1.48254E+00
 -1       164 8.12500E-01-2.60475E-01 1.47722E+00
 -1       165 1.00000E+00-2.28187E-01 1.48254E+00
 -1       166 7.50000E-01-2.61053E-01 1.98289E+00
 -1       167 1.00000E+00-2.61053E-01 1.98289E+00
 -1       168 6.87500E-01-2.28422E-01 1.73503E+00
 -1       169 1.00000E+00-2.28422E-01 1.73503E+00
 -1       170 7.50000E-01-2.17734E-01 1.98811E+00
 -1       171 8.75000E-01-2.61053E-01 1.98289E+00
 -1       172 1.00000E+00-2.17734E-01 1.98811E+00
 -1       173 7.50000E-01-3.47300E-01 1.96962E+00
 -1       174 1.00000E+00-3.47300E-01 1.96962E+00
 -1       175 6.87500E-01-3.03887E-01 1.72342E+00
 -1       176 1.00000E+00-3.03887E-01 1.72342E+00
 -1       177 7.50000E-01-3.04249E-01 1.97673E+00
 -1       178 8.75000E-01-3.47300E-01 1.96962E+00
 -1       179 1.00000E+00-3.04249E-01 1.97673E+00
 -1       180 0.00000E+00-1.30529E-01 9.91444E-01
 -1       181 2.50000E-01-1.95791E-01 1.48717E+00
 -1       182 0.00000E+00-1.08871E-01 9.94053E-01
 -1       183 2.50000E-01-1.30529E-01 9.91444E-01
 -1       184 1.25000E-01-1.63160E-01 1.23931E+00
 -1       185 2.50000E-01-1.63302E-01 1.49108E+00
 -1       186 4.37500E-01-1.95791E-01 1.48717E+00
 -1       187 0.00000E+00-1.73650E-01 9.84810E-01
 -1       188 2.50000E-01-2.60475E-01 1.47722E+00
 -1       189 0.00000E+00-1.52126E-01 9.88362E-01
 -1       190 2.50000E-01-1.73650E-01 9.84810E-01
 -1       191 1.25000E-01-2.17063E-01 1.23101E+00
 -1       192 2.50000E-01-2.28187E-01 1.48254E+00
 -1       193 4.37500E-01-2.60475E-01 1.47722E+00
 -1       194 5.00000E-01-2.61053E-01 1.98289E+00
 -1       195 3.75000E-01-2.28422E-01 1.73503E+00
 -1       196 5.00000E-01-2.17734E-01 1.98811E+00
 -1       197 6.25000E-01-2.61053E-01 1.98289E+00
 -1       198 5.00000E-01-3.47300E-01 1.96962E+00
 -1       199 3.75000E-01-3.03887E-01 1.72342E+00
 -1       200 5.00000E-01-3.04249E-01 1.97673E+00
 -1       201 6.25000E-01-3.47300E-01 1.96962E+00
 -1       202 2.50000E-01-4.26890E-01 3.24253E+00
 -1       203 5.00000E-01-4.61435E-01 3.50492E+00
 -1       204 2.50000E-01-3.11341E-01 2.36485E+00
 -1       205 5.00000E-01-3.61244E-01 2.74390E+00
 -1       206 2.50000E-01-3.57170E-01 3.26126E+00
 -1       207 3.75000E-01-4.44258E-01 3.37445E+00
 -1       208 5.00000E-01-3.86781E-01 3.53162E+00
 -1       209 2.50000E-01-5.64358E-01 3.20063E+00
 -1       210 5.00000E-01-6.07770E-01 3.44683E+00
 -1       211 2.50000E-01-4.12416E-01 2.33892E+00
 -1       212 5.00000E-01-4.77535E-01 2.70823E+00
 -1       213 2.50000E-01-4.95963E-01 3.22231E+00
 -1       214 3.75000E-01-5.86064E-01 3.32373E+00
 -1       215 5.00000E-01-5.35109E-01 3.47664E+00
 -1       216 2.50000E-01-6.52631E-01 4.95722E+00
 -1       217 5.00000E-01-6.52631E-01 4.95722E+00
 -1       218 2.50000E-01-5.39761E-01 4.09988E+00
 -1       219 5.00000E-01-5.57033E-01 4.23107E+00
 -1       220 2.50000E-01-5.44335E-01 4.97028E+00
 -1       221 3.75000E-01-6.52631E-01 4.95722E+00
 -1       222 5.00000E-01-5.44335E-01 4.97028E+00
 -1       223 2.50000E-01-8.68240E-01 4.92404E+00
 -1       224 5.00000E-01-8.68240E-01 4.92404E+00
 -1       225 2.50000E-01-7.16299E-01 4.06233E+00
 -1       226 5.00000E-01-7.38005E-01 4.18543E+00
 -1       227 2.50000E-01-7.60617E-01 4.94181E+00
 -1       228 3.75000E-01-8.68240E-01 4.92404E+00
 -1       229 5.00000E-01-7.60617E-01 4.94181E+00
 -1       230 4.44089E-16-3.91580E-01 2.97433E+00
 -1       231 0.00000E+00-2.61055E-01 1.98289E+00
 -1       232-8.88178E-16-3.26603E-01 2.98217E+00
 -1       233 1.25000E-01-4.09331E-01 3.10916E+00
 -1       234 0.00000E+00-5.20945E-01 2.95443E+00
 -1       235 0.00000E+00-3.47297E-01 1.96962E+00
 -1       236-8.88178E-16-4.56371E-01 2.96508E+00
 -1       237 1.25000E-01-5.42651E-01 3.07753E+00
 -1       238 0.00000E+00-6.52631E-01 4.95722E+00
 -1       239 0.00000E+00-5.22106E-01 3.96578E+00
 -1       240 0.00000E+00-5.44335E-01 4.97028E+00
 -1       241 1.25000E-01-6.52631E-01 4.95722E+00
 -1       242 0.00000E+00-8.68240E-01 4.92404E+00
 -1       243 0.00000E+00-6.94592E-01 3.93923E+00
 -1       244 0.00000E+00-7.60617E-01 4.94181E+00
 -1       245 1.25000E-01-8.68240E-01 4.92404E+00
 -1       246 8.00000E-01 1.38997E-16 2.27000E+00
 -1       247 6.50000E-01 1.29813E-16 2.12000E+00
 -1       248 6.50000E-01-9.24730E-02 2.11798E+00
 -1       249 8.00000E-01-9.90142E-02 2.26784E+00
 -1       250 8.00000E-01 2.22580E-16 3.63500E+00
 -1       251 6.50000E-01 2.17987E-16 3.56000E+00
 -1       252 6.50000E-01-1.55652E-01 3.56499E+00
 -1       253 8.00000E-01-1.58556E-01 3.63154E+00
 -1       254 7.25000E-01 1.34405E-16 2.19500E+00
 -1       255 6.50000E-01-4.62475E-02 2.11949E+00
 -1       256 7.25000E-01-9.57436E-02 2.19291E+00
 -1       257 8.00000E-01-4.95189E-02 2.26946E+00
 -1       258 8.00000E-01 1.80788E-16 2.95250E+00
 -1       259 6.50000E-01 1.73900E-16 2.84000E+00
 -1       260 6.50000E-01-1.24062E-01 2.84149E+00
 -1       261 8.00000E-01-1.28785E-01 2.94969E+00
 -1       262 7.25000E-01 2.20283E-16 3.59750E+00
 -1       263 6.50000E-01-7.77529E-02 3.56335E+00
 -1       264 7.25000E-01-1.57099E-01 3.59816E+00
 -1       265 8.00000E-01-7.92968E-02 3.63413E+00
 -1       266 6.50000E-01-1.84770E-01 2.11193E+00
 -1       267 8.00000E-01-1.97840E-01 2.26136E+00
 -1       268 6.50000E-01-3.11739E-01 3.56317E+00
 -1       269 8.00000E-01-3.16810E-01 3.62117E+00
 -1       270 6.50000E-01-1.38655E-01 2.11546E+00
 -1       271 7.25000E-01-1.91305E-01 2.18665E+00
 -1       272 8.00000E-01-1.48462E-01 2.26514E+00
 -1       273 6.50000E-01-2.48254E-01 2.83755E+00
 -1       274 8.00000E-01-2.57325E-01 2.94126E+00
 -1       275 6.50000E-01-2.33660E-01 3.56494E+00
 -1       276 7.25000E-01-3.14255E-01 3.59195E+00
 -1       277 8.00000E-01-2.37740E-01 3.62722E+00
 -1       278 8.00000E-01 3.06162E-16 5.00000E+00
 -1       279 6.50000E-01 3.06162E-16 5.00000E+00
 -1       280 6.50000E-01-2.18098E-01 4.99524E+00
 -1       281 8.00000E-01-2.18098E-01 4.99524E+00
 -1       282 8.00000E-01 2.64371E-16 4.31750E+00
 -1       283 6.50000E-01 2.62074E-16 4.28000E+00
 -1       284 6.50000E-01-1.86875E-01 4.28012E+00
 -1       285 8.00000E-01-1.88327E-01 4.31339E+00
 -1       286 7.25000E-01 3.06162E-16 5.00000E+00
 -1       287 6.50000E-01-1.09075E-01 4.99881E+00
 -1       288 7.25000E-01-2.18098E-01 4.99524E+00
 -1       289 8.00000E-01-1.09075E-01 4.99881E+00
 -1       290 6.50000E-01-4.35780E-01 4.98097E+00
 -1       291 8.00000E-01-4.35780E-01 4.98097E+00
 -1       292 6.50000E-01-3.73759E-01 4.27207E+00
 -1       293 8.00000E-01-3.76295E-01 4.30107E+00
 -1       294 6.50000E-01-3.27017E-01 4.98929E+00
 -1       295 7.25000E-01-4.35780E-01 4.98097E+00
 -1       296 8.00000E-01-3.27017E-01 4.98929E+00
 -1       297 5.00000E-01 1.20628E-16 1.97000E+00
 -1       298 5.00000E-01-8.59318E-02 1.96812E+00
 -1       299 5.00000E-01 2.13395E-16 3.48500E+00
 -1       300 5.00000E-01-1.52786E-01 3.49932E+00
 -1       301 5.75000E-01 1.25220E-16 2.04500E+00
 -1       302 5.00000E-01-4.29761E-02 1.96953E+00
 -1       303 5.75000E-01-8.92024E-02 2.04305E+00
 -1       304 5.00000E-01 1.67011E-16 2.72750E+00
 -1       305 5.00000E-01-1.19359E-01 2.73372E+00
 -1       306 5.75000E-01 2.15691E-16 3.52250E+00
 -1       307 5.00000E-01-7.62185E-02 3.49300E+00
 -1       308 5.75000E-01-1.54214E-01 3.53205E+00
 -1       309 5.00000E-01-1.71700E-01 1.96250E+00
 -1       310 5.00000E-01-3.06820E-01 3.50692E+00
 -1       311 5.00000E-01-1.28847E-01 1.96578E+00
 -1       312 5.75000E-01-1.78235E-01 2.03721E+00
 -1       313 5.00000E-01-2.39260E-01 2.73471E+00
 -1       314 5.00000E-01-2.29665E-01 3.50397E+00
 -1       315 5.75000E-01-3.09260E-01 3.53483E+00
 -1       316 5.00000E-01 3.06162E-16 5.00000E+00
 -1       317 5.00000E-01-2.18098E-01 4.99524E+00
 -1       318 5.00000E-01 2.59778E-16 4.24250E+00
 -1       319 5.00000E-01-1.85442E-01 4.24728E+00
 -1       320 5.75000E-01 3.06162E-16 5.00000E+00
 -1       321 5.00000E-01-1.09075E-01 4.99881E+00
 -1       322 5.75000E-01-2.18098E-01 4.99524E+00
 -1       323 5.00000E-01-4.35780E-01 4.98097E+00
 -1       324 5.00000E-01-3.71300E-01 4.24395E+00
 -1       325 5.00000E-01-3.27017E-01 4.98929E+00
 -1       326 5.75000E-01-4.35780E-01 4.98097E+00
 -1       327 5.00000E+00 1.20628E-16 1.97000E+00
 -1       328 2.75000E+00 1.20628E-16 1.97000E+00
 -1       329 2.75000E+00-8.59318E-02 1.96812E+00
 -1       330 5.00000E+00-8.59318E-02 1.96812E+00
 -1       331 5.00000E+00 1.29813E-16 2.12000E+00
 -1       332 2.82500E+00 1.29813E-16 2.12000E+00
 -1       333 2.82500E+00-9.24730E-02 2.11798E+00
 -1       334 5.00000E+00-9.24730E-02 2.11798E+00
 -1       335 3.87500E+00 1.20628E-16 1.97000E+00
 -1       336 2.75000E+00-4.29761E-02 1.96953E+00
 -1       337 3.87500E+00-8.59318E-02 1.96812E+00
 -1       338 5.00000E+00-4.29761E-02 1.96953E+00
 -1       339 5.00000E+00 1.25220E-16 2.04500E+00
 -1       340 2.78750E+00 1.25220E-16 2.04500E+00
 -1       341 2.78750E+00-8.92024E-02 2.04305E+00
 -1       342 5.00000E+00-8.92024E-02 2.04305E+00
 -1       343 3.91250E+00 1.29813E-16 2.12000E+00
 -1       344 2.82500E+00-4.62475E-02 2.11949E+00
 -1       345 3.91250E+00-9.24730E-02 2.11798E+00
 -1       346 5.00000E+00-4.62475E-02 2.11949E+00
 -1       347 2.75000E+00-1.71700E-01 1.96250E+00
 -1       348 5.00000E+00-1.71700E-01 1.96250E+00
 -1       349 2.82500E+00-1.84770E-01 2.11193E+00
 -1       350 5.00000E+00-1.84770E-01 2.11193E+00
 -1       351 2.75000E+00-1.28847E-01 1.96578E+00
 -1       352 3.87500E+00-1.71700E-01 1.96250E+00
 -1       353 5.00000E+00-1.28847E-01 1.96578E+00
 -1       354 2.78750E+00-1.78235E-01 2.03721E+00
 -1       355 5.00000E+00-1.78235E-01 2.03721E+00
 -1       356 2.82500E+00-1.38655E-01 2.11546E+00
 -1       357 3.91250E+00-1.84770E-01 2.11193E+00
 -1       358 5.00000E+00-1.38655E-01 2.11546E+00
 -1       359 5.00000E+00 1.38997E-16 2.27000E+00
 -1       360 2.90000E+00 1.38997E-16 2.27000E+00
 -1       361 2.90000E+00-9.90142E-02 2.26784E+00
 -1       362 5.00000E+00-9.90142E-02 2.26784E+00
 -1       363 5.00000E+00 1.34405E-16 2.19500E+00
 -1       364 2.86250E+00 1.34405E-16 2.19500E+00
 -1       365 2.86250E+00-9.57436E-02 2.19291E+00
 -1       366 5.00000E+00-9.57436E-02 2.19291E+00
 -1       367 3.95000E+00 1.38997E-16 2.27000E+00
 -1       368 2.90000E+00-4.95189E-02 2.26946E+00
 -1       369 3.95000E+00-9.90142E-02 2.26784E+00
 -1       370 5.00000E+00-4.95189E-02 2.26946E+00
 -1       371 2.90000E+00-1.97840E-01 2.26136E+00
 -1       372 5.00000E+00-1.97840E-01 2.26136E+00
 -1       373 2.86250E+00-1.91305E-01 2.18665E+00
 -1       374 5.00000E+00-1.91305E-01 2.18665E+00
 -1       375 2.90000E+00-1.48462E-01 2.26514E+00
 -1       376 3.95000E+00-1.97840E-01 2.26136E+00
 -1       377 5.00000E+00-1.48462E-01 2.26514E+00
 -1       378 1.62500E+00 1.20628E-16 1.97000E+00
 -1       379 1.62500E+00-8.59318E-02 1.96812E+00
 -1       380 1.73750E+00 1.29813E-16 2.12000E+00
 -1       381 1.73750E+00-9.24730E-02 2.11798E+00
 -1       382 1.62500E+00-1.71700E-01 1.96250E+00
 -1       383 1.73750E+00-1.84770E-01 2.11193E+00
 -1       384 1.85000E+00 1.38997E-16 2.27000E+00
 -1       385 1.85000E+00-9.90142E-02 2.26784E+00
 -1       386 1.85000E+00-1.97840E-01 2.26136E+00
 -1       387 6.50000E-01-2.76716E-01 2.10186E+00
 -1       388 8.00000E-01-2.96292E-01 2.25058E+00
 -1       389 6.50000E-01-4.65769E-01 3.53786E+00
 -1       390 8.00000E-01-4.74462E-01 3.60390E+00
 -1       391 6.50000E-01-2.30798E-01 2.10740E+00
 -1       392 7.25000E-01-2.86504E-01 2.17622E+00
 -1       393 8.00000E-01-2.47125E-01 2.25651E+00
 -1       394 6.50000E-01-3.71243E-01 2.81986E+00
 -1       395 8.00000E-01-3.85377E-01 2.92724E+00
 -1       396 6.50000E-01-3.88938E-01 3.55135E+00
 -1       397 7.25000E-01-4.70101E-01 3.57077E+00
 -1       398 8.00000E-01-3.95730E-01 3.61339E+00
 -1       399 6.50000E-01-3.68135E-01 2.08779E+00
 -1       400 8.00000E-01-3.94180E-01 2.23551E+00
 -1       401 6.50000E-01-6.18187E-01 3.50591E+00
 -1       402 8.00000E-01-6.31210E-01 3.57978E+00
 -1       403 6.50000E-01-3.22502E-01 2.09532E+00
 -1       404 7.25000E-01-3.81157E-01 2.16165E+00
 -1       405 8.00000E-01-3.45318E-01 2.24358E+00
 -1       406 6.50000E-01-4.93161E-01 2.79685E+00
 -1       407 8.00000E-01-5.12695E-01 2.90764E+00
 -1       408 6.50000E-01-5.42198E-01 3.52271E+00
 -1       409 7.25000E-01-6.24699E-01 3.54285E+00
 -1       410 8.00000E-01-5.52967E-01 3.59269E+00
 -1       411 6.50000E-01-6.52631E-01 4.95722E+00
 -1       412 8.00000E-01-6.52631E-01 4.95722E+00
 -1       413 6.50000E-01-5.59200E-01 4.24754E+00
 -1       414 8.00000E-01-5.63546E-01 4.28056E+00
 -1       415 6.50000E-01-5.44335E-01 4.97028E+00
 -1       416 7.25000E-01-6.52631E-01 4.95722E+00
 -1       417 8.00000E-01-5.44335E-01 4.97028E+00
 -1       418 6.50000E-01-8.68240E-01 4.92404E+00
 -1       419 8.00000E-01-8.68240E-01 4.92404E+00
 -1       420 6.50000E-01-7.43214E-01 4.21498E+00
 -1       421 8.00000E-01-7.49725E-01 4.25191E+00
 -1       422 6.50000E-01-7.60617E-01 4.94181E+00
 -1       423 7.25000E-01-8.68240E-01 4.92404E+00
 -1       424 8.00000E-01-7.60617E-01 4.94181E+00
 -1       425 5.00000E-01-2.57140E-01 1.95314E+00
 -1       426 5.00000E-01-4.57191E-01 3.47269E+00
 -1       427 5.00000E-01-2.14471E-01 1.95829E+00
 -1       428 5.75000E-01-2.66928E-01 2.02750E+00
 -1       429 5.00000E-01-3.57166E-01 2.71292E+00
 -1       430 5.00000E-01-3.82288E-01 3.49062E+00
 -1       431 5.75000E-01-4.61466E-01 3.50517E+00
 -1       432 5.00000E-01-3.42090E-01 1.94007E+00
 -1       433 5.00000E-01-6.05165E-01 3.43205E+00
 -1       434 5.00000E-01-2.99686E-01 1.94707E+00
 -1       435 5.75000E-01-3.55112E-01 2.01393E+00
 -1       436 5.00000E-01-4.73628E-01 2.68606E+00
 -1       437 5.00000E-01-5.31495E-01 3.45317E+00
 -1       438 5.75000E-01-6.11676E-01 3.46899E+00
 -1       439 5.00000E-01-6.52631E-01 4.95722E+00
 -1       440 5.00000E-01-5.54911E-01 4.21496E+00
 -1       441 5.00000E-01-5.44335E-01 4.97028E+00
 -1       442 5.75000E-01-6.52631E-01 4.95722E+00
 -1       443 5.00000E-01-8.68240E-01 4.92404E+00
 -1       444 5.00000E-01-7.36703E-01 4.17805E+00
 -1       445 5.00000E-01-7.60617E-01 4.94181E+00
 -1       446 5.75000E-01-8.68240E-01 4.92404E+00
 -1       447 2.75000E+00-2.57140E-01 1.95314E+00
 -1       448 5.00000E+00-2.57140E-01 1.95314E+00
 -1       449 2.82500E+00-2.76716E-01 2.10186E+00
 -1       450 5.00000E+00-2.76716E-01 2.10186E+00
 -1       451 2.75000E+00-2.14471E-01 1.95829E+00
 -1       452 3.87500E+00-2.57140E-01 1.95314E+00
 -1       453 5.00000E+00-2.14471E-01 1.95829E+00
 -1       454 2.78750E+00-2.66928E-01 2.02750E+00
 -1       455 5.00000E+00-2.66928E-01 2.02750E+00
 -1       456 2.82500E+00-2.30798E-01 2.10740E+00
 -1       457 3.91250E+00-2.76716E-01 2.10186E+00
 -1       458 5.00000E+00-2.30798E-01 2.10740E+00
 -1       459 2.75000E+00-3.42090E-01 1.94007E+00
 -1       460 5.00000E+00-3.42090E-01 1.94007E+00
 -1       461 2.82500E+00-3.68135E-01 2.08779E+00
 -1       462 5.00000E+00-3.68135E-01 2.08779E+00
 -1       463 2.75000E+00-2.99686E-01 1.94707E+00
 -1       464 3.87500E+00-3.42090E-01 1.94007E+00
 -1       465 5.00000E+00-2.99686E-01 1.94707E+00
 -1       466 2.78750E+00-3.55112E-01 2.01393E+00
 -1       467 5.00000E+00-3.55112E-01 2.01393E+00
 -1       468 2.82500E+00-3.22502E-01 2.09532E+00
 -1       469 3.91250E+00-3.68135E-01 2.08779E+00
 -1       470 5.00000E+00-3.22502E-01 2.09532E+00
 -1       471 2.90000E+00-2.96292E-01 2.25058E+00
 -1       472 5.00000E+00-2.96292E-01 2.25058E+00
 -1       473 2.86250E+00-2.86504E-01 2.17622E+00
 -1       474 5.00000E+00-2.86504E-01 2.17622E+00
 -1       475 2.90000E+00-2.47125E-01 2.25651E+00
 -1       476 3.95000E+00-2.96292E-01 2.25058E+00
 -1       477 5.00000E+00-2.47125E-01 2.25651E+00
 -1       478 2.90000E+00-3.94180E-01 2.23551E+00
 -1       479 5.00000E+00-3.94180E-01 2.23551E+00
 -1       480 2.86250E+00-3.81157E-01 2.16165E+00
 -1       481 5.00000E+00-3.81157E-01 2.16165E+00
 -1       482 2.90000E+00-3.45318E-01 2.24358E+00
 -1       483 3.95000E+00-3.94180E-01 2.23551E+00
 -1       484 5.00000E+00-3.45318E-01 2.24358E+00
 -1       485 1.62500E+00-2.57140E-01 1.95314E+00
 -1       486 1.73750E+00-2.76716E-01 2.10186E+00
 -1       487 1.62500E+00-3.42090E-01 1.94007E+00
 -1       488 1.73750E+00-3.68135E-01 2.08779E+00
 -1       489 1.85000E+00-2.96292E-01 2.25058E+00
 -1       490 1.85000E+00-3.94180E-01 2.23551E+00
 -3
    3C                            64                                     1
 -1         1    4    0    1
 -2         1         2         3         4         5         6         7         8         9        10
 -2        11        12        13        14        15        16        17        18        19        20
 -1         2    4    0    1
 -2         4         3        21        22         8         7        23        24        11        25
 -2        26        27        16        15        28        29        19        30        31        32
 -1         3    4    0    1
 -2         5         6         7         8        33        34        35        36        17        18
 -2        19        20        37        38        39        40        41        42        43        44
 -1         4    4    0    1
 -2         8         7        23        24        36        35        45        46        19        30
 -2        31        32        40        39        47        48        43        49        50        51
 -1         5    4    0    1
 -2         2        52        53         3         6        54        55         7        56        57
 -2        58        10        14        59        60        15        61        62        63        18
 -1         6    4    0    1
 -2         3        53        64        21         7        55        65        23        58        66
 -2        67        25        15        60        68        28        63        69        70        30
 -1         7    4    0    1
 -2         6        54        55         7        34        71        72        35        61        62
 -2        63        18        38        73        74        39        75        76        77        42
 -1         8    4    0    1
 -2         7        55        65        23        35        72        78        45        63        69
 -2        70        30        39        74        79        47        77        80        81        49
 -1         9    4    0    1
 -2        71        54        55        72        82        83        84        85        73        62
 -2        74        76        86        87        88        89        90        91        92        93
 -1        10    4    0    1
 -2        72        55        65        78        85        84        94        95        74        69
 -2        79        80        89        88        96        97        92        98        99       100
 -1        11    4    0    1
 -2        82        83        84        85       101       102       103       104        90        91
 -2        92        93       105       106       107       108       109       110       111       112
 -1        12    4    0    1
 -2        85        84        94        95       104       103       113       114        92        98
 -2        99       100       108       107       115       116       111       117       118       119
 -1        13    4    0    1
 -2        54        52        53        55        83       120       121        84        59        57
 -2        60        62        87       122       123        88       124       125       126        91
 -1        14    4    0    1
 -2        55        53        64        65        84       121       127        94        60        66
 -2        68        69        88       123       128        96       126       129       130        98
 -1        15    4    0    1
 -2        83       120       121        84       102       131       132       103       124       125
 -2       126        91       106       133       134       107       135       136       137       110
 -1        16    4    0    1
 -2        84       121       127        94       103       132       138       113       126       129
 -2       130        98       107       134       139       115       137       140       141       117
 -1        17    4    0    1
 -2        22        21       142       143        24        23       144       145        26       146
 -2       147       148        29        28       149       150        31       151       152       153
 -1        18    4    0    1
 -2       143       142       154       155       145       144       156       157       147       158
 -2       159       160       150       149       161       162       152       163       164       165
 -1        19    4    0    1
 -2        24        23       144       145        46        45       166       167        31       151
 -2       152       153        48        47       168       169        50       170       171       172
 -1        20    4    0    1